2
N2_1minus.log	Energy:  -68754.2957769
N         -0.00000       -0.00000        0.59470
N          0.00000        0.00000       -0.59470
