2
N2_2minus.log	Energy:  -68735.0424648
N          0.00000        0.00000        0.64255
N          0.00000        0.00000       -0.64255
