2
N2_3minus.log	Energy:  -68675.8381186
N          0.00000       -0.00000        0.68351
N          0.00000        0.00000       -0.68351
