2
N2_4minus.log	Energy:  -68606.2685070
N         -0.00000       -0.00000        0.80681
N          0.00000        0.00000       -0.80681
