2
N2_neutral.log	Energy:  -68731.1873127
N         -0.00000        0.00000        0.55247
N          0.00000       -0.00000       -0.55247
