144
tada_N2_amido.log	Energy: -2086825.7774110
Ti        33.08409        8.18669       12.55521
Ti        36.19385       10.47348        9.81131
K         32.76391       10.78979        9.01762
Si        31.01498        6.02575       11.14084
Si        31.87327        9.57311       15.33357
Si        36.37555       10.47275        6.43595
K         34.88538       11.46613       13.31962
Si        39.23508       10.77071       11.36217
N         33.93568        9.30472       11.50504
N         34.79744        9.91971       10.77877
N         32.53068        6.35585       11.92513
N         35.68294        9.87242        7.91770
N         36.62399        7.70527        9.71265
N         34.95470        7.10071       13.05804
N         33.16400        8.74960       14.51011
N         38.17030       10.08712       10.17630
N         36.12893       12.39808        9.91793
C         36.10392        7.31717       12.12817
H         36.97365        6.78238       12.53803
H         36.32285        8.38566       12.13429
C         30.06484        7.67020       11.08749
C         33.52056        5.28843       12.07273
H         34.03943        5.07600       11.12746
H         33.06361        4.33406       12.38430
C         35.84370        6.91529       10.66909
H         36.03143        5.83528       10.52658
H         34.79280        7.10491       10.44659
C         31.20813        5.38332        9.33015
C         38.07785        7.62160        9.86817
H         38.50383        6.76663        9.30835
H         38.31851        7.47199       10.92332
C         36.16829        7.45457        8.33748
H         35.74477        6.43774        8.24359
H         37.02881        7.50239        7.66690
C         35.14053        8.50516        7.88636
H         34.78221        8.20588        6.88778
C         35.34013        7.62192       14.40902
H         36.01995        6.91218       14.90497
H         35.89022        8.55255       14.24661
C         30.89562       10.53304       14.01708
H         30.14423       11.17732       14.48956
H         30.36258        9.86654       13.32541
H         31.55073       11.17557       13.41564
C         34.10592        7.91900       15.26391
H         33.65339        6.96674       15.59016
H         34.46243        8.40844       16.18599
C         29.99612        4.76368       12.12615
H         30.56765        3.84500       12.30968
H         29.07441        4.48103       11.60094
H         29.71835        5.18325       13.10112
C         32.23049        6.26113        8.58281
C         29.85260        5.45359        8.59315
H         29.07834        4.85926        9.09594
H         29.95338        5.05876        7.56983
H         29.48292        6.48330        8.51032
C         34.53944        5.66591       13.15592
H         34.05699        5.54008       14.12815
H         35.42748        5.01663       13.13273
C         31.69519        3.91755        9.31508
H         32.67202        3.79933        9.79811
H         31.79894        3.56119        8.27789
H         30.98835        3.24826        9.82153
C         38.71408        8.94574        9.42419
H         39.80537        8.84408        9.52712
H         38.53516        9.08061        8.34824
C         35.05642       11.11648        5.16390
C         38.23163       11.66835       12.69181
C         30.67080        8.35217       16.22662
C         37.36576        9.12369        5.51436
H         38.22821        8.79926        6.10934
H         37.75226        9.50852        4.56225
H         36.76232        8.23476        5.29103
C         37.58986       11.87687        6.80559
H         38.17637       12.12636        5.91215
H         38.28582       11.56479        7.59385
C         40.51477       12.00935       10.60443
C         30.36217        7.16744       15.28893
H         29.87286        7.49728       14.36320
H         29.68362        6.45060       15.77766
H         31.27159        6.62848       14.99898
C         32.52998       10.80643       16.62213
H         33.29873       10.35159       17.25976
H         31.72730       11.16440       17.28018
H         32.97293       11.68549       16.13638
C         34.28905       12.31831        5.74297
H         33.76873       12.05467        6.66956
H         33.52891       12.67579        5.02982
C         31.30595        7.81392       17.52804
H         32.23779        7.26733       17.34129
H         30.61510        7.11804       18.03018
H         31.52888        8.62133       18.23700
C         40.22945        9.41361       12.26643
H         39.54742        8.65472       12.67218
H         40.95181        8.90045       11.61939
C         29.34984        9.06551       16.58780
H         29.51488        9.93360       17.23985
H         28.67761        8.37784       17.12503
H         28.81559        9.41401       15.69528
C         34.04033       10.00685        4.82066
H         34.52642        9.11863        4.39703
H         33.31169       10.36787        4.07667
H         33.47383        9.68632        5.70369
C         35.74586       11.57294        3.85878
H         36.48776       12.36103        4.04085
H         35.00113       11.98129        3.15675
H         36.25243       10.74581        3.34745
C         41.24031       11.35543        9.40970
H         41.79857       10.45775        9.70774
H         41.96455       12.05859        8.96717
H         40.53553       11.06643        8.62092
H         29.04016        7.51856       10.72809
H         31.91498        7.31194        8.54968
H         32.34909        5.92266        7.54146
H         33.21642        6.22893        9.05747
H         29.98888        8.12199       12.08407
H         37.46293       12.28187       12.21211
H         37.75035       10.92191       13.33942
H         38.85387       12.30982       13.32802
H         34.27379        8.42344        8.55680
H         33.59477       12.48348       10.84752
H         30.54515        8.39895       10.42236
C         35.33837       13.61824       10.23192
H         37.08458       12.78522        7.14797
C         39.79053       13.27481       10.10358
C         41.56452       12.42361       11.65734
H         34.94920       13.16165        5.97406
H         40.78866        9.84207       13.10850
C         34.85016       14.21466        8.87639
C         34.17590       13.35463       11.20732
C         36.28712       14.67625       10.85034
H         39.06783       13.03841        9.31514
H         39.24821       13.78580       10.90767
H         40.51371       13.99161        9.68127
H         42.15213       11.56680       12.01013
H         41.10368       12.89794       12.53388
H         42.27215       13.15142       11.22828
H         35.68066       14.40403        8.17568
H         34.15868       13.52159        8.38867
H         34.32026       15.16381        9.03868
H         33.48998       14.22171       11.14411
H         37.09836       14.95233       10.15906
H         35.72899       15.58934       11.09856
H         36.73620       14.29492       11.77229
H         36.98892       12.71218        9.45582
