144
tada_N2.log	Energy: -2086746.3666650
Ti        12.85244       10.46010       24.65268
Ti        16.94558        7.88394       24.21749
Si        12.47159       12.48974       27.28784
Si         9.93861        9.15693       23.55331
Si        19.60281        8.05303       26.37067
Si        17.92339        7.46310       20.91805
N         14.19214        9.30523       24.67587
N         15.28901        8.67221       24.49661
N         18.03479        8.67125       25.80249
N         12.92940       12.24149       25.59560
N         13.75449       11.64851       22.98289
N         17.35711       10.89204       23.83001
N         11.47243        9.97053       23.19762
N         16.78351        6.13151       24.44439
N         17.96431        8.32069       22.46032
C         15.19435       11.38101       22.69932
H         15.46932       11.92800       21.78391
H         15.28876       10.31079       22.50997
C         18.14748       11.07966       25.04245
H         19.20633       10.94934       24.80722
H         18.03300       12.11348       25.42820
C         16.15480       11.71280       23.84530
H         15.64009       11.49844       24.78443
C         12.97009       11.26768       21.76624
H         13.43603       10.36771       21.35433
H         13.04849       12.05934       21.00444
C         17.75868       10.07250       26.14121
H         18.26049       10.39998       27.06855
C         18.12718       10.83618       22.59857
H         17.45157       10.92436       21.74354
H         18.86089       11.66944       22.52294
C         16.34007        4.79504       24.71736
C         11.51390       10.94871       22.11024
H         10.99011       11.88896       22.36230
H         11.03576       10.58547       21.18268
C         18.85807        9.48739       22.47472
H         19.48003        9.55927       21.56752
H         19.57376        9.40503       23.30723
C          8.46093       10.39256       23.90123
H         13.32834       11.76898       30.16795
C         19.61248        7.56285       28.28349
C         10.25049        8.11027       25.13058
H         10.43792        8.75329       26.00040
H          9.38443        7.48005       25.36219
H         11.12248        7.45777       25.00638
C         20.12617        6.50918       25.37124
H         19.24705        5.89184       25.16234
C          8.95257       11.52180       24.82431
H          9.80021       12.06584       24.39239
H          8.14482       12.24620       25.01378
H          9.27673       11.13593       25.79889
C          9.39712        7.98729       22.12605
H         10.04717        7.10524       22.07378
H          8.36825        7.63567       22.27272
H          9.44032        8.49912       21.15719
C         19.53293        6.40373       20.52759
C         18.79897        6.27567       28.50126
H         19.22373        5.42912       27.94901
H         18.78567        6.00124       29.56901
H         17.75825        6.38220       28.17642
C         17.71378        8.70388       19.44970
H         18.60130        9.32987       19.29787
H         17.51584        8.16836       18.51272
H         16.86384        9.36881       19.64958
C         19.62820        5.23177       21.51911
H         18.76274        4.56328       21.44762
H         20.52962        4.62929       21.31656
H         19.68881        5.58561       22.55344
C          7.30100        9.64384       24.58792
H          7.59690        9.23686       25.56281
H          6.45546       10.32819       24.76067
H          6.92662        8.81269       23.97564
C         19.01133        8.68668       29.14743
H         17.96571        8.88877       28.88623
H         19.03651        8.40903       30.21414
C         17.09078        3.76849       23.82684
H         16.89564        3.96800       22.76824
H         18.17114        3.85286       23.98859
H         16.78295        2.73507       24.04597
C          7.94459       10.99749       22.57971
H          7.57607       10.22381       21.89428
H          7.10781       11.68561       22.77882
H          8.71835       11.56939       22.05456
C         16.60747        4.40600       26.19348
H         16.30532        3.36984       26.40623
H         17.67141        4.51153       26.42356
H         16.05065        5.06204       26.87431
C         19.46366        5.84797       19.09197
H         19.44860        6.64903       18.34208
H         20.34458        5.21930       18.88242
H         18.57500        5.22291       18.93308
C         20.80169        7.26644       20.66633
H         20.92008        7.64537       21.68821
H         21.69727        6.66894       20.42870
H         20.79350        8.12767       19.98503
K         15.34050        7.98230       27.19627
K         13.45318        7.53851       22.57519
C         11.12245       13.84412       27.45655
C         13.98242       12.96146       28.43760
C         21.00489        9.36795       26.16464
C         13.57942       13.32508       24.86184
C         13.47216       13.07240       23.34964
H         16.40273       12.79435       23.83786
C         21.05856        7.30608       28.75382
H         20.88088        5.91993       25.90686
H         20.55055        6.81655       24.40798
H         19.56558        9.62820       29.04139
H         10.20195       13.51452       26.96023
H         10.89295       14.05171       28.50910
H         11.44225       14.78303       26.98932
C         14.41262       14.42153       28.18957
C         13.59204       12.80496       29.92036
H         21.11448        9.63432       25.10700
H         20.80281       10.28773       26.72712
H         21.96421        8.96336       26.50896
H         13.10615       14.30534       25.04976
H         14.63585       13.44592       25.14544
H         12.43970       13.27618       23.05369
H         14.12681       13.74462       22.77355
H         21.55842        6.53677       28.15104
H         21.67059        8.21487       28.71196
H         21.06412        6.95643       29.79918
H         14.72885       14.58898       27.15362
H         13.60218       15.12750       28.41121
H         15.26372       14.68277       28.83834
H         14.43431       13.09322       30.56915
H         12.73966       13.44219       30.19065
C         15.15791       12.02248       28.11638
H         16.03649       12.26643       28.73373
H         14.89786       10.97476       28.31770
H         15.45456       12.09139       27.06498
C         11.74821       10.81794       27.89718
H         10.92819       10.48221       27.25217
H         12.51512       10.03364       27.90793
H         11.34958       10.91281       28.91340
C         14.81905        4.62636       24.45275
H         14.59884        4.84017       23.39937
H         14.47254        3.60438       24.66692
H         14.24367        5.31947       25.07992
C         16.41285        6.28161       20.87113
H         16.59230        5.39979       20.24504
H         16.20613        5.95259       21.89509
H         15.53732        6.80423       20.46304
H         16.68183       10.20984       26.31871
